data_51638-ICSD
#©2004 by Fachinformationszentrum Karlsruhe, and the U.S. Secretary of 
#Commerce on behalf of the United States.  All rights reserved.
_database_code_ICSD                51638
_audit_creation_date               2003/10/01
_audit_update_record               2004/10/01
_chemical_name_systematic
;
Magnesium Sodium Potassium Tecto-alumosilicate Hydrate *
;
_chemical_formula_structural
;
Mg1.56 Na1.24 K1.06 (Al5.3 Si10.7 O32) (H2 O)9.6
;
_chemical_formula_sum
;
H19.2 Al5.3 K1.06 Mg1.56 Na1.24 O41.6 Si10.7
;
_chemical_name_mineral             Phillipsite
_publ_section_title
;
Structure of Mg-exchanged Phillipsites
;
loop_
_citation_id
_citation_journal_abbrev
_citation_year
_citation_journal_volume
_citation_page_first
_citation_page_last
_citation_journal_id_ASTM
primary 'Materials Science Forum' 2001 378 677 682 MSFOEP
_publ_author_name                  'Gualtieri, A.F.'
_cell_length_a                     9.8257(7)
_cell_length_b                     14.1341(8)
_cell_length_c                     8.6911(8)
_cell_angle_alpha                  90
_cell_angle_beta                   124.04(1)
_cell_angle_gamma                  90
_cell_volume                       1000.18
_cell_formula_units_Z              1
_symmetry_space_group_name_H-M     'P 1 21/m 1'
_symmetry_Int_Tables_number        11
_refine_ls_R_factor_all            .098
loop_
_symmetry_equiv_pos_site_id
_symmetry_equiv_pos_as_xyz
  1	'x, -y+.5, z'
  2	'-x, -y, -z'
  3	'-x, y+.5, -z'
  4	'x, y, z'
loop_
_atom_type_symbol
_atom_type_oxidation_number
Al3+  	3
H1+   	1
K1+   	1
Mg2+  	2
Na1+  	1
O2-   	-2
Si4+  	4
loop_
_atom_site_label
_atom_site_type_symbol
_atom_site_symmetry_multiplicity
_atom_site_Wyckoff_symbol
_atom_site_fract_x
_atom_site_fract_y
_atom_site_fract_z
_atom_site_occupancy
_atom_site_attached_hydrogens
_atom_site_U_iso_or_equiv
Al1 Al3+ 4 f 0.7362(15) 0.0044(10) 0.3154(17) 0.3312 0 0.070(5) 
Si1 Si4+ 4 f 0.7362(15) 0.0044(10) 0.3154(17) 0.6688 0 0.070(5) 
Al2 Al3+ 4 f 0.4223(17) 0.1361(10) 0.0120(18) 0.3312 0 0.061(8) 
Si2 Si4+ 4 f 0.4223(17) 0.1361(10) 0.0120(18) 0.6688 0 0.061(8) 
Al3 Al3+ 4 f 0.0309(13) 0.0222(9) 0.2672(15) 0.3312 0 0.039(4) 
Si3 Si4+ 4 f 0.0309(13) 0.0222(9) 0.2672(15) 0.6688 0 0.039(4) 
Al4 Al3+ 4 f 0.1301(16) 0.1355(9) 0.0313(18) 0.3312 0 0.060(9) 
Si4 Si4+ 4 f 0.1301(16) 0.1355(9) 0.0313(18) 0.6688 0 0.060(9) 
O1 O2- 4 f 0.0961(32) 0.1087(16) 0.1874(32) 1. 0 0.072(8) 
O2 O2- 4 f 0.6042(29) 0.5839(17) 0.1782(30) 1. 0 0.071(7) 
O3 O2- 4 f 0.5680(23) 0.0813(14) 0.2116(25) 1. 0 0.040(8) 
O4 O2- 4 f 0.0016(26) 0.9314(16) 0.1380(30) 1. 0 0.071(6) 
O5 O2- 4 f 0.9300(17) 0.0167(16) 0.3719(16) 1. 0 0.072(5) 
O6 O2- 4 f 0.3321(21) 0.3792(15) 0.1264(26) 1. 0 0.056(6) 
O7 O2- 4 f 0.7900(19) 0.5102(24) 0.5278(21) 1. 0 0.047(7) 
O8 O2- 2 e 0.5667(39) 0.75 0.0466(44) 1. 0 0.044(8) 
O9 O2- 2 e 0.0561(43) 0.25 0.0113(50) 1. 0 0.072(8) 
K1 K1+ 2 e 0.8590(29) 0.25 0.2197(29) 0.53(4) 0 0.050(7) 
Mg1 Mg2+ 4 f 0.506(4) 0.6378(16) 0.428(5) 0.39(8) 0 0.102(8) 
Na1 Na1+ 4 f 0.532(4) 0.7142(21) 0.677(5) 0.31(5) 0 0.031(9) 
O10 O2- 2 e 0.9196(52) 0.75 0.4782(72) 0.65(5) 0 0.129(9) 
O11 O2- 2 e 0.7982(33) 0.25 0.5838(43) 0.96(6) 0 0.042(8) 
O12 O2- 4 f 0.2738(29) 0.8516(14) 0.1550(29) 1. 0 0.081(9) 
O13 O2- 2 e 0.3465(40) 0.25 0.5518(51) 1. 0 0.100(7) 
O14 O2- 2 d 0.5 0.5 0.5 0.19(9) 0 0.101(9) 
#Position of 19.2 Elements of H Are Undetermined.
#End of data_51638-ICSD


